ITEM: TIMESTEP
0
ITEM: NUMBER OF ATOMS
1000
ITEM: BOX BOUNDS pp pp pp
0.0000000000000000e+00 5.0000000000000000e+01
0.0000000000000000e+00 5.0000000000000000e+01
0.0000000000000000e+00 5.0000000000000000e+01
ITEM: ATOMS id mol type element q xu yu zu
837 45 1 N 0.15 17.9865 7.55961 6.43769
838 45 2 C -0.11 19.1208 7.40714 5.79022
839 45 1 N 0.15 19.0254 7.94149 4.59248
841 45 3 C -0.13 17.1112 8.22975 5.61068
842 45 4 C -0.17 17.6932 7.10174 7.79913
843 45 5 H 0.21 19.9991 6.91664 6.18319
844 45 6 C -0.17 20.0764 7.97572 3.57112
847 45 8 H 0.13 16.8564 6.40361 7.77588
848 45 8 H 0.13 18.5701 6.60336 8.21223
850 45 9 C -0.05 21.3239 7.28971 4.10365
851 45 8 H 0.13 19.7314 7.45756 2.67639
853 45 10 H 0.06 22.1054 7.31516 3.34425
854 45 10 H 0.06 21.6702 7.80753 4.99811
855 45 10 H 0.06 21.092 6.25379 4.35102
408 22 7 H 0.21 14.4133 16.5989 5.26266
414 22 8 H 0.13 14.5206 16.6201 8.22087
846 45 7 H 0.21 16.0949 8.51042 5.84482
840 45 3 C -0.13 17.7586 8.46775 4.4607
845 45 7 H 0.21 17.362 8.97617 3.59435
852 45 8 H 0.13 20.3096 9.0113 3.32348
952 52 11 Cl -1 3.7089 24.8948 1.54048
400 22 1 N 0.15 13.6599 19.728 5.61272
401 22 2 C -0.11 14.1778 19.4288 6.78383
402 22 1 N 0.15 14.5406 18.1649 6.80059
403 22 3 C -0.13 14.2398 17.6192 5.57155
404 22 3 C -0.13 13.6909 18.5933 4.83124
405 22 4 C -0.17 13.1385 21.0345 5.19997
406 22 5 H 0.21 14.2885 20.1176 7.60822
407 22 6 C -0.17 15.1572 17.4538 7.92456
409 22 7 H 0.21 13.3392 18.5054 3.8139
410 22 8 H 0.13 12.0858 20.9387 4.93425
411 22 8 H 0.13 13.2424 21.7437 6.02121
412 22 8 H 0.13 13.6993 21.394 4.33714
415 22 8 H 0.13 16.1341 17.0753 7.62376
314 17 7 H 0.21 23.2745 7.85361 15.0933
849 45 8 H 0.13 17.4346 7.95735 8.42297
771 41 8 H 0.13 3.2305 13.5861 16.4606
985 85 11 Cl -1 6.60542 13.1552 9.38806
955 55 11 Cl -1 8.4582 15.7225 14.3519
305 17 1 N 0.15 24.7992 9.34754 14.5672
308 17 3 C -0.13 24.7858 8.40545 16.5414
309 17 3 C -0.13 24.143 8.4352 15.3648
310 17 4 C -0.17 24.433 9.6972 13.1914
315 17 8 H 0.13 23.4205 10.1007 13.1758
317 17 8 H 0.13 24.4782 8.80617 12.5652
980 80 11 Cl -1 6.00659 17.8492 16.5383
413 22 9 C -0.05 15.3228 18.4058 9.09785
416 22 10 H 0.06 15.7812 17.8771 9.93354
417 22 10 H 0.06 15.9597 19.2397 8.80273
418 22 10 H 0.06 14.3463 18.7844 9.39984
774 41 9 C -0.05 2.84276 8.11275 18.4906
775 41 8 H 0.13 4.98232 8.26204 18.4522
777 41 10 H 0.06 2.84813 7.04897 18.7282
779 41 10 H 0.06 2.74064 8.2434 17.4133
356 19 9 C -0.05 10.1605 6.94468 24.4631
359 19 10 H 0.06 10.824 7.12717 23.6178
360 19 10 H 0.06 9.9976 5.87239 24.5716
361 19 10 H 0.06 9.20574 7.44083 24.2886
313 17 7 H 0.21 24.5323 7.79538 17.3958
595 32 4 C -0.17 24.5764 6.84397 22.3465
600 32 8 H 0.13 24.04 6.63304 23.2716
601 32 8 H 0.13 24.0276 7.5892 21.7707
602 32 8 H 0.13 24.6662 5.92813 21.7623
628 34 1 N 0.15 4.86298 12.118 23.9261
629 34 2 C -0.11 5.91854 12.7849 24.3388
630 34 1 N 0.15 6.86945 11.9446 24.6837
631 34 3 C -0.13 6.40046 10.6647 24.482
632 34 3 C -0.13 5.15 10.7728 24.0099
633 34 4 C -0.17 3.59865 12.6933 23.4574
634 34 5 H 0.21 5.99329 13.8612 24.3872
636 34 7 H 0.21 6.93868 9.7472 24.669
637 34 7 H 0.21 4.49154 9.9587 23.745
638 34 8 H 0.13 2.7838 12.3482 24.0938
639 34 8 H 0.13 3.65609 13.781 23.4995
640 34 8 H 0.13 3.41469 12.3792 22.43
645 34 10 H 0.06 8.1924 14.2384 24.2763
761 41 1 N 0.15 3.50263 12.0995 17.9167
762 41 2 C -0.11 3.16881 10.8337 18.0411
763 41 1 N 0.15 4.13752 10.1741 18.6375
764 41 3 C -0.13 5.15238 11.0647 18.9129
765 41 3 C -0.13 4.7567 12.2646 18.4637
766 41 4 C -0.17 2.69203 13.1573 17.3058
767 41 5 H 0.21 2.2386 10.4008 17.7039
768 41 6 C -0.17 4.14475 8.74338 18.957
769 41 7 H 0.21 6.08995 10.8388 19.3991
770 41 7 H 0.21 5.31562 13.187 18.5199
772 41 8 H 0.13 1.74766 12.7377 16.9591
773 41 8 H 0.13 2.49439 13.9357 18.0427
776 41 8 H 0.13 4.24621 8.61165 20.0343
778 41 10 H 0.06 2.00453 8.59301 18.9954
643 34 8 H 0.13 8.96158 11.9036 24.5245
990 90 11 Cl -1 16.0168 13.6323 21.9098
966 66 11 Cl -1 19.3676 15.3346 24.4254
1000 100 11 Cl -1 12.7663 24.3057 21.7233
343 19 1 N 0.15 8.20794 6.60269 28.031
348 19 4 C -0.17 6.91535 6.01628 28.3978
349 19 5 H 0.21 8.26759 6.25415 25.9325
353 19 8 H 0.13 6.27921 6.78417 28.8379
354 19 8 H 0.13 6.43336 5.6123 27.5075
355 19 8 H 0.13 7.07107 5.21574 29.1209
344 19 2 C -0.11 8.7302 6.64876 26.8251
345 19 1 N 0.15 9.90022 7.24738 26.8689
346 19 3 C -0.13 10.1457 7.60722 28.1762
347 19 3 C -0.13 9.09105 7.20543 28.9005
350 19 6 C -0.17 10.7927 7.49283 25.7321
351 19 7 H 0.21 11.0225 8.11688 28.5477
352 19 7 H 0.21 8.95852 7.3306 29.965
358 19 8 H 0.13 11.7475 6.99653 25.9053
635 34 6 C -0.17 8.19744 12.2986 25.1939
641 34 9 C -0.05 8.32488 13.8114 25.2704
642 34 8 H 0.13 8.33069 11.8726 26.1882
646 34 10 H 0.06 7.5615 14.2074 25.9401
357 19 8 H 0.13 10.9557 8.56497 25.6223
644 34 10 H 0.06 9.31227 14.0746 25.6497
6 1 4 C -0.17 18.3404 24.2357 28.2985
11 1 8 H 0.13 19.1111 23.4649 28.2974
12 1 8 H 0.13 17.8116 24.2187 29.2514
13 1 8 H 0.13 17.6357 24.0453 27.489
904 48 8 H 0.13 24.5485 21.0594 27.397
905 48 8 H 0.13 24.2852 21.5707 25.7128
920 49 6 C -0.17 7.62889 14.6599 36.2877
926 49 9 C -0.05 7.36106 16.1473 36.1251
927 49 8 H 0.13 7.17481 14.1168 35.4588
928 49 8 H 0.13 7.19807 14.3142 37.2273
929 49 10 H 0.06 6.28564 16.3248 36.1195
931 49 10 H 0.06 7.79098 16.4938 35.1854
913 49 1 N 0.15 11.1989 14.7617 36.2293
914 49 2 C -0.11 10.0155 15.3333 36.1811
915 49 1 N 0.15 9.07529 14.4211 36.2953
916 49 3 C -0.13 9.68685 13.193 36.4244
917 49 3 C -0.13 11.0103 13.4053 36.3833
918 49 4 C -0.17 12.4963 15.4379 36.1368
919 49 5 H 0.21 9.84197 16.3929 36.0651
921 49 7 H 0.21 9.19322 12.2391 36.5373
922 49 7 H 0.21 11.7832 12.6545 36.4569
923 49 8 H 0.13 13.0458 15.0547 35.2769
924 49 8 H 0.13 12.3402 16.5102 36.0191
925 49 8 H 0.13 13.069 15.2522 37.0454
131 7 10 H 0.06 8.03173 24.3847 36.4578
132 7 10 H 0.06 6.31894 24.7536 36.7699
133 7 10 H 0.06 6.99358 24.9738 35.1379
930 49 10 H 0.06 7.81424 16.6913 36.9539
951 51 11 Cl -1 4.1963 18.4478 36.3475
424 23 4 C -0.17 7.55801 16.5903 46.4709
430 23 8 H 0.13 7.61889 15.5217 46.2648
420 23 2 C -0.11 10.0388 16.489 46.4196
425 23 5 H 0.21 10.1182 15.4314 46.2154
432 23 9 C -0.05 12.6115 15.469 46.1906
435 23 10 H 0.06 13.6673 15.2056 46.1264
436 23 10 H 0.06 12.1436 14.8991 46.9933
437 23 10 H 0.06 12.1211 15.2348 45.2457
62 4 3 C -0.13 8.30537 19.9292 43.9223
67 4 7 H 0.21 7.35041 19.5505 44.2555
68 4 8 H 0.13 8.18588 17.8537 41.9816
429 23 8 H 0.13 7.01289 17.0844 45.6666
431 23 8 H 0.13 7.03534 16.7487 47.4142
58 4 1 N 0.15 9.22397 19.2606 43.1423
59 4 2 C -0.11 10.2538 20.0567 42.9554
60 4 1 N 0.15 10.0501 21.2006 43.5712
61 4 3 C -0.13 8.82024 21.1382 44.1896
63 4 4 C -0.17 9.06929 17.9002 42.6185
64 4 5 H 0.21 11.1347 19.8083 42.3821
65 4 6 C -0.17 10.965 22.3457 43.5999
66 4 7 H 0.21 8.358 21.9165 44.7786
69 4 8 H 0.13 9.95083 17.6321 42.0361
70 4 8 H 0.13 8.95599 17.2017 43.4476
71 4 9 C -0.05 12.2138 22.0177 42.7979
72 4 8 H 0.13 10.4728 23.2157 43.1652
73 4 8 H 0.13 11.2429 22.5637 44.6311
74 4 10 H 0.06 12.8941 22.8691 42.8193
75 4 10 H 0.06 12.7072 21.1481 43.2323
76 4 10 H 0.06 11.9371 21.8002 41.7663
419 23 1 N 0.15 8.91032 17.1492 46.5609
421 23 1 N 0.15 11.0561 17.3096 46.5641
422 23 3 C -0.13 10.5552 18.5691 46.8125
423 23 3 C -0.13 9.2179 18.4691 46.8105
426 23 6 C -0.17 12.476 16.9554 46.4779
427 23 7 H 0.21 11.1312 19.4676 46.9777
428 23 7 H 0.21 8.51416 19.2719 46.9738
433 23 8 H 0.13 12.9448 17.5243 45.675
434 23 8 H 0.13 12.9672 17.1886 47.4225
858 46 1 N 0.15 22.7154 24.4141 45.8115
859 46 3 C -0.13 23.147 24.3935 47.12
863 46 6 C -0.17 21.9757 23.3427 45.1377
864 46 7 H 0.21 23.0037 23.5927 47.8304
869 46 9 C -0.05 21.6866 23.7508 43.7023
870 46 8 H 0.13 22.572 22.4303 45.1424
871 46 8 H 0.13 21.036 23.1647 45.6606
872 46 10 H 0.06 21.1366 22.9542 43.2013
873 46 10 H 0.06 21.0898 24.6629 43.6965
874 46 10 H 0.06 22.6257 23.9284 43.1783
495 27 1 N 0.15 22.2646 28.2654 8.034
496 27 2 C -0.11 20.9732 28.4151 7.83594
500 27 4 C -0.17 23.261 27.8853 7.02806
501 27 5 H 0.21 20.4696 28.2753 6.89083
505 27 8 H 0.13 23.7481 26.9583 7.33051
506 27 8 H 0.13 22.7696 27.7399 6.06604
507 27 8 H 0.13 24.0072 28.6749 6.93864
508 27 9 C -0.05 18.2271 28.8285 7.83115
511 27 10 H 0.06 17.1636 29.0212 7.9721
512 27 10 H 0.06 18.6265 29.5218 7.09089
513 27 10 H 0.06 18.3674 27.8052 7.48275
547 29 8 H 0.13 13.5807 34.9554 7.99169
835 44 10 H 0.06 8.185 32.5153 16.1548
836 44 10 H 0.06 8.03423 32.5728 14.3825
541 29 7 H 0.21 15.1107 32.5535 8.7994
825 44 6 C -0.17 9.90836 33.2929 15.1399
831 44 9 C -0.05 8.70938 32.3614 15.2117
832 44 8 H 0.13 10.4324 33.1378 14.1968
833 44 8 H 0.13 10.5831 33.0803 15.9691
834 44 10 H 0.06 9.04789 31.3272 15.1494
497 27 1 N 0.15 20.3871 28.7605 8.96128
498 27 3 C -0.13 21.3548 28.8377 9.93924
499 27 3 C -0.13 22.5249 28.5291 9.36134
502 27 6 C -0.17 18.9567 29.0197 9.15085
503 27 7 H 0.21 21.2001 29.0977 10.976
504 27 7 H 0.21 23.4899 28.4939 9.84505
509 27 8 H 0.13 18.5562 28.3264 9.89054
510 27 8 H 0.13 18.8153 30.0429 9.49868
542 29 7 H 0.21 17.6875 32.5466 9.29647
818 44 1 N 0.15 8.16996 36.4033 15.3886
819 44 2 C -0.11 8.20793 35.0897 15.3428
823 44 4 C -0.17 6.96982 37.2353 15.5176
824 44 5 H 0.21 7.3458 34.4413 15.3951
828 44 8 H 0.13 6.88837 37.8932 14.6524
829 44 8 H 0.13 6.08834 36.5964 15.5719
830 44 8 H 0.13 7.03914 37.8357 16.4247
998 98 11 Cl -1 6.18625 39.7942 12.1167
534 29 2 C -0.11 16.3154 35.4521 9.52335
535 29 1 N 0.15 15.2805 34.709 9.19739
536 29 3 C -0.13 15.716 33.4087 9.06131
539 29 5 H 0.21 16.2846 36.5175 9.69786
540 29 6 C -0.17 13.9029 35.1739 9.00977
546 29 9 C -0.05 13.8361 36.6732 9.25083
548 29 8 H 0.13 13.2474 34.6635 9.71529
549 29 10 H 0.06 12.8118 37.0189 9.11133
550 29 10 H 0.06 14.1576 36.8927 10.2689
551 29 10 H 0.06 14.4909 37.1847 8.54532
820 44 1 N 0.15 9.45308 34.6839 15.2237
821 44 3 C -0.13 10.2628 35.7984 15.1909
822 44 3 C -0.13 9.46318 36.87 15.2937
826 44 7 H 0.21 11.3389 35.8072 15.0997
827 44 7 H 0.21 9.77402 37.9043 15.3008
91 5 8 H 0.13 20.1322 41.4395 8.95436
95 5 10 H 0.06 21.2215 41.2142 11.1606
533 29 1 N 0.15 17.3933 34.7034 9.60495
537 29 3 C -0.13 17.0327 33.4052 9.31531
538 29 4 C -0.17 18.7452 35.1583 9.9434
543 29 8 H 0.13 19.4213 34.9361 9.11772
544 29 8 H 0.13 18.7331 36.2333 10.1232
545 29 8 H 0.13 19.088 34.6441 10.8413
86 5 7 H 0.21 16.1779 43.798 10.7355
87 5 8 H 0.13 16.603 42.8891 13.5177
77 5 1 N 0.15 17.9389 43.2892 11.9494
78 5 2 C -0.11 19.1375 42.871 11.6062
79 5 1 N 0.15 19.2145 42.7651 10.2978
80 5 3 C -0.13 17.9976 43.1357 9.76812
81 5 3 C -0.13 17.2026 43.4623 10.7975
82 5 4 C -0.17 17.4593 43.5319 13.3134
83 5 5 H 0.21 19.9384 42.648 12.2956
84 5 6 C -0.17 20.385 42.3301 9.52974
85 5 7 H 0.21 17.7338 43.1588 8.7211
88 5 8 H 0.13 18.2561 43.3115 14.0238
89 5 8 H 0.13 17.1618 44.5756 13.4141
90 5 9 C -0.05 21.5263 42.0105 10.4815
92 5 8 H 0.13 20.691 43.126 8.85073
93 5 10 H 0.06 22.3966 41.687 9.91043
94 5 10 H 0.06 21.7803 42.9006 11.057
96 6 1 N 0.15 24.6493 45.4371 15.0527
97 6 2 C -0.11 23.8909 44.3799 15.2434
98 6 1 N 0.15 22.8256 44.7154 15.9377
99 6 3 C -0.13 22.9019 46.0642 16.2095
100 6 3 C -0.13 24.0384 46.5139 15.658
102 6 5 H 0.21 24.1099 43.3854 14.8839
103 6 6 C -0.17 21.7428 43.8188 16.3534
105 6 7 H 0.21 24.4061 47.5291 15.6833
109 6 9 C -0.05 22.0309 42.4112 15.8573
111 6 8 H 0.13 20.8001 44.1666 15.9311
112 6 10 H 0.06 21.2258 41.7446 16.1664
113 6 10 H 0.06 22.1005 42.416 14.7695
114 6 10 H 0.06 22.9732 42.0623 16.2796
967 67 11 Cl -1 1.93287 30.5391 18.5185
965 65 11 Cl -1 17.389 31.6808 20.9884
976 76 11 Cl -1 2.66397 39.8365 24.2521
969 69 11 Cl -1 8.42752 36.5243 20.348
970 70 11 Cl -1 6.05713 45.8707 24.5151
984 84 11 Cl -1 2.57066 44.1882 24.5028
104 6 7 H 0.21 22.1818 46.649 16.7626
110 6 8 H 0.13 21.6728 43.8129 17.4412
191 11 1 N 0.15 12.769 29.1352 27.3059
192 11 2 C -0.11 13.7773 29.9746 27.3952
193 11 1 N 0.15 13.5689 30.8177 28.3825
194 11 3 C -0.13 12.3587 30.5041 28.9621
195 11 3 C -0.13 11.8601 29.4555 28.2911
196 11 4 C -0.17 12.626 28.0468 26.3342
197 11 5 H 0.21 14.6461 29.9719 26.7537
198 11 6 C -0.17 14.4616 31.903 28.8
199 11 7 H 0.21 11.8983 31.008 29.7991
200 11 7 H 0.21 10.9227 28.9559 28.486
201 11 8 H 0.13 11.7259 28.2052 25.7403
202 11 8 H 0.13 13.4957 28.0291 25.6773
203 11 8 H 0.13 12.5502 27.0959 26.8615
204 11 9 C -0.05 15.6932 31.918 27.9093
205 11 8 H 0.13 13.9403 32.8564 28.7142
206 11 8 H 0.13 14.7646 31.747 29.8354
207 11 10 H 0.06 16.357 32.7249 28.2197
208 11 10 H 0.06 16.2157 30.9652 27.9949
209 11 10 H 0.06 15.3914 32.0745 26.8737
1 1 1 N 0.15 18.962 25.5495 28.1072
2 1 2 C -0.11 18.9072 26.5674 28.9379
3 1 1 N 0.15 19.5786 27.5836 28.4421
4 1 3 C -0.13 20.0949 27.1991 27.2237
5 1 3 C -0.13 19.7106 25.9315 27.015
7 1 5 H 0.21 18.3887 26.5686 29.8852
8 1 6 C -0.17 19.7523 28.8976 29.0685
9 1 7 H 0.21 20.6959 27.8047 26.5615
10 1 7 H 0.21 19.9439 25.3239 26.153
14 1 9 C -0.05 19.0294 28.9219 30.4054
15 1 8 H 0.13 20.8138 29.0879 29.2266
16 1 8 H 0.13 19.3384 29.6683 28.4182
17 1 10 H 0.06 19.1585 29.8989 30.8712
18 1 10 H 0.06 17.9675 28.7323 30.2483
19 1 10 H 0.06 19.443 28.1519 31.0567
912 48 10 H 0.06 24.8881 26.1506 25.4849
157 9 3 C -0.13 8.04138 41.0975 32.7505
162 9 7 H 0.21 7.9712 40.7436 31.7325
163 9 8 H 0.13 5.70698 39.5381 33.2048
165 9 8 H 0.13 5.19913 41.1596 32.6759
564 30 8 H 0.13 8.14317 37.1438 27.0373
552 30 1 N 0.15 9.84895 37.9979 26.1627
553 30 2 C -0.11 11.1144 38.1225 26.4977
554 30 1 N 0.15 11.5656 39.2939 26.106
555 30 3 C -0.13 10.5332 39.9616 25.4839
556 30 3 C -0.13 9.46329 39.1539 25.5192
557 30 4 C -0.17 8.98999 36.8386 26.4226
558 30 5 H 0.21 11.696 37.3748 27.0166
559 30 6 C -0.17 12.9259 39.8071 26.2942
560 30 7 H 0.21 10.5773 40.9494 25.0496
561 30 7 H 0.21 8.4836 39.3687 25.1186
562 30 8 H 0.13 8.6258 36.4364 25.4773
563 30 8 H 0.13 9.56143 36.0726 26.9467
565 30 9 C -0.05 13.7633 38.7694 27.0238
566 30 8 H 0.13 13.3734 40.0165 25.3226
567 30 8 H 0.13 12.8908 40.7239 26.8826
568 30 10 H 0.06 14.7747 39.151 27.1636
569 30 10 H 0.06 13.317 38.5597 27.9958
570 30 10 H 0.06 13.7996 37.8523 26.4358
685 37 1 N 0.15 23.7992 39.6326 32.1377
686 37 2 C -0.11 23.5164 40.8574 32.5241
688 37 3 C -0.13 23.9956 40.9472 30.4004
689 37 3 C -0.13 24.1053 39.6701 30.7946
690 37 4 C -0.17 23.7932 38.4317 32.9785
693 37 7 H 0.21 24.1669 41.3282 29.4044
694 37 7 H 0.21 24.3816 38.8291 30.176
695 37 8 H 0.13 24.7872 37.9845 32.9813
697 37 8 H 0.13 23.0738 37.7144 32.5832
981 81 11 Cl -1 19.2363 33.6414 33.2535
161 9 7 H 0.21 10.091 41.7816 32.8796
958 58 11 Cl -1 14.9139 44.1373 29.0788
687 37 1 N 0.15 23.6231 41.6817 31.5052
692 37 6 C -0.17 23.389 43.1287 31.5312
698 37 9 C -0.05 22.9956 43.5538 32.9365
699 37 8 H 0.13 24.2997 43.65 31.236
700 37 8 H 0.13 22.5863 43.3799 30.838
701 37 10 H 0.06 22.8215 44.6296 32.9559
702 37 10 H 0.06 22.0846 43.0335 33.2324
115 7 1 N 0.15 4.55005 28.0706 35.5159
116 7 2 C -0.11 5.31046 27.0115 35.6874
117 7 1 N 0.15 6.46188 27.37 36.2117
118 7 3 C -0.13 6.44242 28.7365 36.3881
119 7 3 C -0.13 5.25093 29.1731 35.9544
120 7 4 C -0.17 3.19453 28.0875 34.9579
121 7 5 H 0.21 5.03121 25.9991 35.4353
122 7 6 C -0.17 7.57549 26.4793 36.5519
123 7 7 H 0.21 7.23714 29.3419 36.7983
124 7 7 H 0.21 4.90544 30.1964 35.9497
125 7 8 H 0.13 3.17667 28.7116 34.0644
126 7 8 H 0.13 2.8956 27.0722 34.6973
127 7 8 H 0.13 2.50203 28.4914 35.6964
128 7 9 C -0.05 7.20374 25.0469 36.2049
130 7 8 H 0.13 7.78605 26.5512 37.6189
129 7 8 H 0.13 8.46068 26.7714 35.9869
153 9 1 N 0.15 7.03439 41.089 33.6912
154 9 2 C -0.11 7.51339 41.6018 34.8034
158 9 4 C -0.17 5.67155 40.5927 33.4781
164 9 8 H 0.13 5.09379 40.7107 34.3948
875 47 1 N 0.15 8.10004 37.0594 39.9966
876 47 2 C -0.11 7.0731 36.4852 40.5839
877 47 1 N 0.15 5.95439 37.0272 40.1551
878 47 3 C -0.13 6.2785 38.0055 39.2402
879 47 3 C -0.13 7.61571 38.0255 39.1415
881 47 5 H 0.21 7.13864 35.688 41.3096
882 47 6 C -0.17 4.59726 36.6613 40.5716
883 47 7 H 0.21 5.58594 38.6371 38.7038
884 47 7 H 0.21 8.20282 38.6764 38.5105
888 47 9 C -0.05 4.66569 35.5391 41.5945
889 47 8 H 0.13 4.10692 37.5276 41.0156
890 47 8 H 0.13 4.02806 36.3273 39.7041
892 47 10 H 0.06 5.15536 34.6721 41.1512
156 9 3 C -0.13 9.12458 41.628 33.3366
880 47 4 C -0.17 9.51467 36.7371 40.2066
885 47 8 H 0.13 10.0381 37.6194 40.575
886 47 8 H 0.13 9.60005 35.933 40.9374
887 47 8 H 0.13 9.95921 36.419 39.2635
691 37 5 H 0.21 23.2382 41.1433 33.5277
696 37 8 H 0.13 23.514 38.7018 33.9969
982 82 11 Cl -1 19.8812 35.6525 37.4305
159 9 5 H 0.21 6.95629 41.7263 35.7202
170 9 10 H 0.06 8.03283 43.3811 36.7658
155 9 1 N 0.15 8.77248 41.9402 34.6318
160 9 6 C -0.17 9.6536 42.5437 35.6361
166 9 9 C -0.05 8.8889 42.7284 36.9366
167 9 8 H 0.13 10.5097 41.8914 35.808
168 9 8 H 0.13 10.0019 43.5129 35.2791
169 9 10 H 0.06 9.54403 43.1771 37.6833
171 9 10 H 0.06 8.54069 41.7596 37.2947
703 37 10 H 0.06 23.798 43.3036 33.6304
999 99 11 Cl -1 2.38021 31.53 44.3035
856 46 1 N 0.15 23.7285 26.2777 46.1731
857 46 2 C -0.11 23.0837 25.5592 45.2802
860 46 3 C -0.13 23.7784 25.5549 47.3453
861 46 4 C -0.17 24.2982 27.613 45.9689
862 46 5 H 0.21 22.8863 25.8639 44.263
865 46 7 H 0.21 24.2394 25.8655 48.2713
867 46 8 H 0.13 24.108 27.9371 44.9458
868 46 8 H 0.13 23.8374 28.3152 46.6636
957 57 11 Cl -1 19.2339 29.4458 44.2074
666 36 1 N 0.15 5.83907 40.467 44.1849
667 36 2 C -0.11 6.86725 41.2866 44.2022
668 36 1 N 0.15 7.98205 40.606 44.0499
669 36 3 C -0.13 7.65396 39.2732 43.9277
670 36 3 C -0.13 6.31841 39.1866 44.0119
671 36 4 C -0.17 4.42773 40.8383 44.3243
675 36 7 H 0.21 5.72913 38.2833 43.9548
676 36 8 H 0.13 4.00499 40.3404 45.197
678 36 8 H 0.13 3.88128 40.5327 43.4321
891 47 10 H 0.06 3.65664 35.2671 41.9042
893 47 10 H 0.06 5.23421 35.8724 42.4627
673 36 6 C -0.17 9.33905 41.1596 44.0151
674 36 7 H 0.21 8.34276 38.4528 43.79
680 36 8 H 0.13 9.92879 40.7284 44.824
681 36 8 H 0.13 9.80508 40.9207 43.0591
672 36 5 H 0.21 6.80538 42.358 44.3232
677 36 8 H 0.13 4.34609 41.9182 44.4477
679 36 9 C -0.05 9.27577 42.6689 44.1839
682 36 10 H 0.06 10.2847 43.0805 44.158
683 36 10 H 0.06 8.68671 43.1011 43.375
684 36 10 H 0.06 8.81042 42.9089 45.1399
229 13 1 N 0.15 28.152 24.8003 4.18826
230 13 2 C -0.11 28.5849 24.7717 5.42965
231 13 1 N 0.15 29.2414 23.6531 5.64679
232 13 3 C -0.13 29.231 22.92 4.48008
233 13 3 C -0.13 28.5521 23.6349 3.5711
236 13 6 C -0.17 29.8756 23.2494 6.90529
237 13 7 H 0.21 29.6843 21.9518 4.32663
238 13 7 H 0.21 28.3557 23.3509 2.54778
242 13 9 C -0.05 29.663 24.332 7.95084
243 13 8 H 0.13 29.432 22.3166 7.25344
244 13 8 H 0.13 30.944 23.1052 6.74443
247 13 10 H 0.06 28.5948 24.4765 8.1129
442 24 3 C -0.13 41.0715 24.2511 6.63034
447 24 7 H 0.21 40.0212 24.1038 6.8339
440 24 1 N 0.15 43.215 23.932 6.33452
441 24 3 C -0.13 42.027 23.3104 6.65252
445 24 6 C -0.17 44.5242 23.2789 6.24222
446 24 7 H 0.21 41.8909 22.2629 6.8773
451 24 9 C -0.05 45.579 24.3073 5.86793
452 24 8 H 0.13 44.7772 22.8333 7.2043
453 24 8 H 0.13 44.4897 22.5006 5.47983
454 24 10 H 0.06 46.5525 23.8218 5.79931
455 24 10 H 0.06 45.3273 24.7531 4.90562
964 64 11 Cl -1 44.6809 3.72022 11.4498
986 86 11 Cl -1 47.9426 6.80758 10.715
306 17 2 C -0.11 25.8032 9.84227 15.2574
307 17 1 N 0.15 25.8306 9.2998 16.455
311 17 5 H 0.21 26.5007 10.583 14.8952
316 17 8 H 0.13 25.1275 10.4451 12.8089
322 17 10 H 0.06 28.317 10.2506 16.1526
961 61 11 Cl -1 29.1668 11.5837 11.2167
324 18 1 N 0.15 37.3042 13.2444 12.4115
325 18 2 C -0.11 38.0718 14.2573 12.0741
326 18 1 N 0.15 37.333 15.2399 11.6072
327 18 3 C -0.13 36.0156 14.8376 11.646
328 18 3 C -0.13 35.9976 13.594 12.1472
329 18 4 C -0.17 37.7486 11.9643 12.971
330 18 5 H 0.21 39.1476 14.2791 12.1665
331 18 6 C -0.17 37.8173 16.5379 11.1279
332 18 7 H 0.21 35.1588 15.4152 11.3318
333 18 7 H 0.21 35.1237 12.9814 12.3127
334 18 8 H 0.13 37.4487 11.1533 12.3072
335 18 8 H 0.13 38.8339 11.9683 13.0715
336 18 8 H 0.13 37.294 11.818 13.9508
337 18 9 C -0.05 39.3316 16.5906 11.249
341 18 10 H 0.06 39.6179 16.4593 12.2925
342 18 10 H 0.06 39.7725 15.7947 10.6489
797 42 10 H 0.06 35.3124 13.3871 16.1945
992 92 11 Cl -1 46.2757 9.1493 12.7158
245 13 10 H 0.06 30.1345 24.0318 8.88656
953 53 11 Cl -1 31.639 19.3483 11.612
338 18 8 H 0.13 37.532 16.6699 10.0842
339 18 8 H 0.13 37.3774 17.3346 11.7278
340 18 10 H 0.06 39.6917 17.5557 10.8927
987 87 11 Cl -1 48.3959 21.6302 8.56677
185 10 9 C -0.05 32.7203 5.78122 23.7048
187 10 8 H 0.13 32.814 7.18819 22.0883
188 10 10 H 0.06 32.1865 6.46449 24.3653
189 10 10 H 0.06 32.0049 5.13399 23.1975
590 32 1 N 0.15 25.9132 7.35638 22.6618
593 32 3 C -0.13 27.9514 7.49092 23.4446
594 32 3 C -0.13 26.8815 6.68536 23.3769
598 32 7 H 0.21 28.8886 7.27308 23.9352
599 32 7 H 0.21 26.7947 5.69663 23.8027
134 8 1 N 0.15 39.6238 5.2354 24.2537
135 8 2 C -0.11 40.9357 5.1466 24.2683
136 8 1 N 0.15 41.4646 6.34629 24.1667
137 8 3 C -0.13 40.4359 7.25929 24.0818
138 8 3 C -0.13 39.2887 6.56696 24.1361
139 8 4 C -0.17 38.6751 4.12155 24.3457
140 8 5 H 0.21 41.495 4.22642 24.3513
142 8 7 H 0.21 40.535 8.33073 23.9891
143 8 7 H 0.21 38.29 6.97586 24.0953
144 8 8 H 0.13 38.0526 4.099 23.4512
145 8 8 H 0.13 39.223 3.18304 24.4302
172 10 1 N 0.15 34.9633 3.84722 20.8962
173 10 2 C -0.11 34.2068 4.34671 21.8488
174 10 1 N 0.15 34.2202 5.66012 21.7857
175 10 3 C -0.13 35.0307 6.02762 20.7336
176 10 3 C -0.13 35.4938 4.89779 20.1793
177 10 4 C -0.17 35.2068 2.42562 20.6337
178 10 5 H 0.21 33.6569 3.76543 22.5742
179 10 6 C -0.17 33.5023 6.5791 22.6742
180 10 7 H 0.21 35.2514 7.03579 20.4154
181 10 7 H 0.21 36.1577 4.82474 19.3306
182 10 8 H 0.13 36.273 2.2169 20.7211
183 10 8 H 0.13 34.6586 1.8228 21.3577
184 10 8 H 0.13 34.87 2.17869 19.6269
186 10 8 H 0.13 34.217 7.2264 23.1824
190 10 10 H 0.06 33.4079 5.1722 24.2917
141 8 6 C -0.17 42.8953 6.66522 24.1464
147 8 9 C -0.05 43.7027 5.38263 24.2622
148 8 8 H 0.13 43.1431 7.16669 23.2108
149 8 8 H 0.13 43.1338 7.32097 24.9837
150 8 10 H 0.06 44.7665 5.61976 24.2471
152 8 10 H 0.06 43.4654 4.7264 23.4249
312 17 6 C -0.17 26.7985 9.58967 17.5172
318 17 9 C -0.05 27.7915 10.6315 17.0283
319 17 8 H 0.13 26.274 9.97128 18.3932
320 17 8 H 0.13 27.3317 8.67679 17.7826
321 17 10 H 0.06 28.5112 10.8471 17.818
323 17 10 H 0.06 27.2593 11.5451 16.7632
476 26 1 N 0.15 31.9519 15.3179 21.8891
477 26 2 C -0.11 33.0636 14.8068 22.3708
478 26 1 N 0.15 32.8023 13.6772 22.9913
479 26 3 C -0.13 31.4463 13.4476 22.9046
480 26 3 C -0.13 30.9164 14.4701 22.2177
481 26 4 C -0.17 31.8245 16.5682 21.1343
484 26 7 H 0.21 30.9111 12.6031 23.313
485 26 7 H 0.21 29.874 14.6042 21.9688
488 26 8 H 0.13 31.4103 16.3574 20.1484
591 32 2 C -0.11 26.4015 8.52776 22.3173
592 32 1 N 0.15 27.63 8.64896 22.7705
596 32 5 H 0.21 25.8729 9.27776 21.7477
597 32 6 C -0.17 28.5097 9.80832 22.594
603 32 9 C -0.05 27.7849 10.8781 21.7936
604 32 8 H 0.13 28.784 10.2088 23.5699
605 32 8 H 0.13 29.4103 9.50392 22.0606
606 32 10 H 0.06 28.439 11.7401 21.6624
607 32 10 H 0.06 27.5107 10.4787 20.8172
608 32 10 H 0.06 26.8845 11.1837 22.3265
780 42 1 N 0.15 31.8915 12.7168 18.0789
781 42 2 C -0.11 33.1135 13.0472 17.7229
783 42 3 C -0.13 33.2454 11.1561 18.7974
784 42 3 C -0.13 31.9555 11.5211 18.761
785 42 4 C -0.17 30.6692 13.4783 17.8044
789 42 7 H 0.21 31.1233 10.9798 19.1862
790 42 8 H 0.13 30.192 13.7521 18.7454
791 42 8 H 0.13 30.9204 14.3816 17.2486
792 42 8 H 0.13 29.985 12.868 17.2148
482 26 5 H 0.21 34.0442 15.2484 22.2717
483 26 6 C -0.17 33.7759 12.8089 23.6601
489 26 9 C -0.05 35.1652 13.4122 23.5329
490 26 8 H 0.13 33.5161 12.7155 24.7146
491 26 8 H 0.13 33.7643 11.8233 23.1949
492 26 10 H 0.06 35.8892 12.7666 24.0302
493 26 10 H 0.06 35.4263 13.5055 22.4787
494 26 10 H 0.06 35.178 14.3977 23.9984
782 42 1 N 0.15 33.9612 12.1312 18.1373
786 42 5 H 0.21 33.3808 13.9372 17.1726
787 42 6 C -0.17 35.4134 12.1385 17.9367
788 42 7 H 0.21 33.6476 10.2656 19.2574
793 42 9 C -0.05 35.8125 13.3844 17.163
794 42 8 H 0.13 35.9144 12.1365 18.9047
795 42 8 H 0.13 35.7074 11.2523 17.3742
796 42 10 H 0.06 36.8922 13.3898 17.0139
798 42 10 H 0.06 35.5195 14.2712 17.725
388 21 6 C -0.17 45.3024 11.2614 24.6672
389 21 7 H 0.21 43.0781 13.0295 24.123
395 21 8 H 0.13 44.5975 10.4981 24.3379
396 21 8 H 0.13 45.7316 11.7585 23.7972
397 21 10 H 0.06 46.9314 9.87772 24.8583
486 26 8 H 0.13 31.162 17.2496 21.6681
487 26 8 H 0.13 32.8064 17.0286 21.0244
746 40 3 C -0.13 32.1138 8.30948 33.3286
751 40 7 H 0.21 32.5647 7.33963 33.1788
146 8 8 H 0.13 38.0434 4.25328 25.2241
212 12 1 N 0.15 37.5193 5.76068 33.1247
216 12 5 H 0.21 39.2507 6.93504 32.735
217 12 6 C -0.17 36.6982 6.03714 31.9421
223 12 9 C -0.05 37.4376 6.99675 31.0241
224 12 8 H 0.13 36.5006 5.10622 31.4107
225 12 8 H 0.13 35.7541 6.48574 32.2514
226 12 10 H 0.06 36.827 7.20229 30.1448
227 12 10 H 0.06 37.6351 7.92829 31.5544
228 12 10 H 0.06 38.3815 6.54878 30.7137
151 8 10 H 0.06 43.4561 4.88068 25.1978
745 40 3 C -0.13 32.6679 9.49778 33.0472
749 40 6 C -0.17 31.9383 11.9124 33.2549
757 40 8 H 0.13 32.1098 12.1583 32.2069
759 40 10 H 0.06 29.8346 12.3237 33.156
750 40 7 H 0.21 33.6491 9.6651 32.6281
381 21 1 N 0.15 44.0482 13.468 27.1804
382 21 2 C -0.11 44.8751 12.5399 26.7514
383 21 1 N 0.15 44.604 12.2464 25.4985
384 21 3 C -0.13 43.5431 13.0292 25.0978
385 21 3 C -0.13 43.1967 13.7905 26.146
386 21 4 C -0.17 44.0265 14.0623 28.5204
387 21 5 H 0.21 45.6592 12.0867 27.3397
390 21 7 H 0.21 42.4002 14.5193 26.1743
391 21 8 H 0.13 43.0582 13.8765 28.9852
392 21 8 H 0.13 44.8128 13.6159 29.1292
393 21 8 H 0.13 44.1924 15.1369 28.4446
394 21 9 C -0.05 46.4121 10.6101 25.4764
398 21 10 H 0.06 47.1179 11.3726 25.8057
399 21 10 H 0.06 45.9838 10.1122 26.3464
586 31 8 H 0.13 33.1491 19.6118 30.1387
587 31 10 H 0.06 32.5665 19.5541 27.7387
894 48 1 N 0.15 25.889 22.5098 26.6876
895 48 2 C -0.11 25.7818 23.6763 26.0901
896 48 1 N 0.15 26.7108 24.4927 26.5369
897 48 3 C -0.13 27.4586 23.8143 27.4747
898 48 3 C -0.13 26.9464 22.5786 27.5687
899 48 4 C -0.17 25.0394 21.3362 26.464
900 48 5 H 0.21 25.0417 23.9264 25.3444
902 48 7 H 0.21 28.299 24.2045 28.0296
903 48 7 H 0.21 27.2967 21.7862 28.2135
906 48 8 H 0.13 25.652 20.5046 26.1158
20 2 1 N 0.15 36.006 23.5481 31.6893
21 2 2 C -0.11 37.2753 23.8918 31.6846
22 2 1 N 0.15 37.6923 24.039 30.4462
23 2 3 C -0.13 36.6325 23.7753 29.6058
24 2 3 C -0.13 35.5816 23.4694 30.3806
25 2 4 C -0.17 35.1783 23.2914 32.8718
26 2 5 H 0.21 37.8839 24.0323 32.5656
27 2 6 C -0.17 39.0447 24.4167 30.0249
28 2 7 H 0.21 36.6458 23.8087 28.5264
29 2 7 H 0.21 34.5892 23.21 30.0426
30 2 8 H 0.13 34.8031 22.2685 32.8382
32 2 8 H 0.13 34.3383 23.9857 32.8856
33 2 9 C -0.05 39.9199 24.6198 31.2509
34 2 8 H 0.13 39.4668 23.6259 29.4047
36 2 10 H 0.06 40.9254 24.9007 30.9377
38 2 10 H 0.06 39.9638 23.6937 31.8241
571 31 1 N 0.15 37.2731 19.2953 29.8306
572 31 2 C -0.11 36.1584 19.4339 29.1469
573 31 1 N 0.15 35.1406 19.01 29.8636
574 31 3 C -0.13 35.6266 18.5739 31.0771
575 31 3 C -0.13 36.9556 18.7517 31.0565
576 31 4 C -0.17 38.6212 19.6525 29.3788
577 31 5 H 0.21 36.0892 19.8355 28.1467
578 31 6 C -0.17 33.7337 18.9997 29.4519
579 31 7 H 0.21 35.0464 18.1657 31.8914
580 31 7 H 0.21 37.6472 18.5137 31.8511
581 31 8 H 0.13 39.2527 18.764 29.3798
582 31 8 H 0.13 38.5705 20.0604 28.3693
583 31 8 H 0.13 39.0443 20.3991 30.0509
584 31 9 C -0.05 33.6126 19.5617 28.0448
585 31 8 H 0.13 33.3575 17.9768 29.4676
588 31 10 H 0.06 33.988 20.5849 28.0282
589 31 10 H 0.06 34.1963 18.9499 27.3571
747 40 4 C -0.17 29.9029 7.54115 34.2889
752 40 8 H 0.13 30.3439 6.9528 35.0935
753 40 8 H 0.13 28.9966 8.02744 34.6497
754 40 8 H 0.13 29.6551 6.88571 33.4539
210 12 1 N 0.15 39.1519 5.78994 34.5261
211 12 2 C -0.11 38.7125 6.2529 33.3764
213 12 3 C -0.13 37.1703 4.9343 34.1707
214 12 3 C -0.13 38.1877 4.95253 35.0441
215 12 4 C -0.17 40.4384 6.10243 35.1556
218 12 7 H 0.21 36.2504 4.37688 34.2687
219 12 7 H 0.21 38.2415 4.41256 35.9778
220 12 8 H 0.13 41.0117 5.1847 35.2868
221 12 8 H 0.13 40.9963 6.79104 34.521
222 12 8 H 0.13 40.2653 6.56421 36.1276
994 94 11 Cl -1 42.9632 7.38613 38.5542
372 20 8 H 0.13 32.9026 16.3721 38.5347
742 40 1 N 0.15 30.8605 8.55848 33.8449
743 40 2 C -0.11 30.6818 9.8611 33.8667
744 40 1 N 0.15 31.7496 10.4652 33.3933
748 40 5 H 0.21 29.7916 10.3599 34.2203
755 40 9 C -0.05 30.6954 12.6355 33.7475
756 40 8 H 0.13 32.7986 12.2254 33.8465
758 40 10 H 0.06 30.8357 13.7116 33.6445
760 40 10 H 0.06 30.5234 12.3907 34.7956
371 20 7 H 0.21 33.6958 16.1626 41.3763
374 20 8 H 0.13 34.6789 16.2793 38.5893
380 20 10 H 0.06 33.1341 21.632 39.9391
31 2 8 H 0.13 35.7774 23.4287 33.772
362 20 1 N 0.15 33.8248 17.7311 39.8411
363 20 2 C -0.11 33.8901 19.0406 39.9424
364 20 1 N 0.15 33.8695 19.3909 41.2097
366 20 3 C -0.13 33.7584 17.2086 41.1146
367 20 4 C -0.17 33.8224 16.9534 38.5984
368 20 5 H 0.21 33.9515 19.7255 39.1097
373 20 8 H 0.13 33.8839 17.6298 37.7458
375 20 9 C -0.05 34.0117 21.7416 40.5762
378 20 10 H 0.06 34.0529 22.759 40.9652
379 20 10 H 0.06 34.9105 21.5392 39.9937
274 15 6 C -0.17 43.0596 21.9776 40.9626
280 15 9 C -0.05 44.1308 22.3469 39.9494
281 15 8 H 0.13 43.0896 20.9038 41.1474
282 15 8 H 0.13 42.0799 22.2511 40.5708
283 15 10 H 0.06 43.9496 21.8121 39.0171
284 15 10 H 0.06 44.1011 23.4205 39.7635
285 15 10 H 0.06 45.1109 22.0733 40.3401
989 89 11 Cl -1 26.5151 16.5426 44.1555
376 20 8 H 0.13 33.0261 20.9628 42.3151
275 15 7 H 0.21 41.6503 22.0027 43.4891
365 20 3 C -0.13 33.7862 18.243 41.9675
369 20 6 C -0.17 33.9249 20.7592 41.7329
370 20 7 H 0.21 33.7502 18.187 43.0454
377 20 8 H 0.13 34.8025 20.87 42.3697
960 60 11 Cl -1 37.5782 21.0715 44.0191
974 74 11 Cl -1 35.7563 20.3331 46.5391
988 88 11 Cl -1 33.4484 24.9584 46.3778
267 15 1 N 0.15 44.1958 23.9937 43.6835
268 15 2 C -0.11 44.2874 23.5362 42.454
269 15 1 N 0.15 43.3033 22.697 42.2165
270 15 3 C -0.13 42.5344 22.6087 43.3567
271 15 3 C -0.13 43.0906 23.4168 44.2709
272 15 4 C -0.17 45.1031 24.9489 44.3264
273 15 5 H 0.21 45.0557 23.8088 41.7456
276 15 7 H 0.21 42.7388 23.5843 45.2782
277 15 8 H 0.13 45.5542 24.4876 45.2049
234 13 4 C -0.17 27.3794 25.8766 3.56065
235 13 5 H 0.21 28.4251 25.55 6.16113
239 13 8 H 0.13 26.4212 25.4851 3.21897
240 13 8 H 0.13 27.2084 26.6723 4.28571