ITEM: TIMESTEP
0
ITEM: NUMBER OF ATOMS
10
ITEM: BOX BOUNDS pp pp pp
0.0000000000000000e+00 5.0000000000000000e+01
0.0000000000000000e+00 5.0000000000000000e+01
0.0000000000000000e+00 5.0000000000000000e+01
ITEM: ATOMS id mol type element q xu yu zu
837 45 1 N 0.15 17.9865 7.55961 6.43769
838 45 2 C -0.11 19.1208 7.40714 5.79022
839 45 1 N 0.15 19.0254 7.94149 4.59248
841 45 3 C -0.13 17.1112 8.22975 5.61068
842 45 4 C -0.17 17.6932 7.10174 7.79913
843 45 5 H 0.21 19.9991 6.91664 6.18319
844 45 6 C -0.17 20.0764 7.97572 3.57112
847 45 8 H 0.13 16.8564 6.40361 7.77588
848 45 8 H 0.13 18.5701 6.60336 8.21223
850 45 9 C -0.05 21.3239 7.28971 4.10365
