ITEM: TIMESTEP
0
ITEM: NUMBER OF ATOMS
27000
ITEM: BOX BOUNDS pp pp pp
0.0000000000000000e+00 1.5000000000000000e+02
0.0000000000000000e+00 1.5000000000000000e+02
0.0000000000000000e+00 1.5000000000000000e+02
ITEM: ATOMS id mol type element q xu yu zu
838 45 2 C -0.11 19.1208 7.40714 5.79022
843 45 5 H 0.21 19.9991 6.91664 6.18319
850 45 9 C -0.05 21.3239 7.28971 4.10365
851 45 8 H 0.13 19.7314 7.45756 2.67639
853 45 10 H 0.06 22.1054 7.31516 3.34425
855 45 10 H 0.06 21.092 6.25379 4.35102
1838 145 2 C -0.11 69.1208 7.40714 5.79022
1843 145 5 H 0.21 69.9991 6.91664 6.18319
1850 145 9 C -0.05 71.3239 7.28971 4.10365
1851 145 8 H 0.13 69.7314 7.45756 2.67639
1853 145 10 H 0.06 72.1054 7.31516 3.34425
1855 145 10 H 0.06 71.092 6.25379 4.35102
2838 245 2 C -0.11 119.121 7.40714 5.79022
2843 245 5 H 0.21 119.999 6.91664 6.18319
2851 245 8 H 0.13 119.731 7.45756 2.67639
2850 245 9 C -0.05 121.324 7.28971 4.10365
2853 245 10 H 0.06 122.105 7.31516 3.34425
2855 245 10 H 0.06 121.092 6.25379 4.35102
837 45 1 N 0.15 17.9865 7.55961 6.43769
839 45 1 N 0.15 19.0254 7.94149 4.59248
840 45 3 C -0.13 17.7586 8.46775 4.4607
841 45 3 C -0.13 17.1112 8.22975 5.61068
844 45 6 C -0.17 20.0764 7.97572 3.57112
845 45 7 H 0.21 17.362 8.97617 3.59435
846 45 7 H 0.21 16.0949 8.51042 5.84482
852 45 8 H 0.13 20.3096 9.0113 3.32348
854 45 10 H 0.06 21.6702 7.80753 4.99811
1841 145 3 C -0.13 67.1112 8.22975 5.61068
1845 145 7 H 0.21 67.362 8.97617 3.59435
1846 145 7 H 0.21 66.0949 8.51042 5.84482
1837 145 1 N 0.15 67.9865 7.55961 6.43769
1839 145 1 N 0.15 69.0254 7.94149 4.59248
1840 145 3 C -0.13 67.7586 8.46775 4.4607
1844 145 6 C -0.17 70.0764 7.97572 3.57112
1852 145 8 H 0.13 70.3096 9.0113 3.32348
1854 145 10 H 0.06 71.6702 7.80753 4.99811
2837 245 1 N 0.15 117.986 7.55961 6.43769
2839 245 1 N 0.15 119.025 7.94149 4.59248
2840 245 3 C -0.13 117.759 8.46775 4.4607
2841 245 3 C -0.13 117.111 8.22975 5.61068
2845 245 7 H 0.21 117.362 8.97617 3.59435
2846 245 7 H 0.21 116.095 8.51042 5.84482
2844 245 6 C -0.17 120.076 7.97572 3.57112
2852 245 8 H 0.13 120.31 9.0113 3.32348
2854 245 10 H 0.06 121.67 7.80753 4.99811
400 22 1 N 0.15 13.6599 19.728 5.61272
401 22 2 C -0.11 14.1778 19.4288 6.78383
402 22 1 N 0.15 14.5406 18.1649 6.80059
403 22 3 C -0.13 14.2398 17.6192 5.57155
404 22 3 C -0.13 13.6909 18.5933 4.83124
405 22 4 C -0.17 13.1385 21.0345 5.19997
408 22 7 H 0.21 14.4133 16.5989 5.26266
409 22 7 H 0.21 13.3392 18.5054 3.8139
410 22 8 H 0.13 12.0858 20.9387 4.93425
411 22 8 H 0.13 13.2424 21.7437 6.02121
412 22 8 H 0.13 13.6993 21.394 4.33714
237 13 7 H 0.21 29.6843 21.9518 4.32663
243 13 8 H 0.13 29.432 22.3166 7.25344
446 24 7 H 0.21 41.8909 22.2629 6.8773
1400 122 1 N 0.15 63.6599 19.728 5.61272
1401 122 2 C -0.11 64.1778 19.4288 6.78383
1402 122 1 N 0.15 64.5406 18.1649 6.80059
1403 122 3 C -0.13 64.2398 17.6192 5.57155
1404 122 3 C -0.13 63.6909 18.5933 4.83124
1405 122 4 C -0.17 63.1385 21.0345 5.19997
1408 122 7 H 0.21 64.4133 16.5989 5.26266
1409 122 7 H 0.21 63.3392 18.5054 3.8139
1410 122 8 H 0.13 62.0858 20.9387 4.93425
1411 122 8 H 0.13 63.2424 21.7437 6.02121
1412 122 8 H 0.13 63.6993 21.394 4.33714
1237 113 7 H 0.21 79.6843 21.9518 4.32663
1243 113 8 H 0.13 79.432 22.3166 7.25344
1446 124 7 H 0.21 91.8909 22.2629 6.8773
2410 222 8 H 0.13 112.086 20.9387 4.93425
2400 222 1 N 0.15 113.66 19.728 5.61272
2401 222 2 C -0.11 114.178 19.4288 6.78383
2402 222 1 N 0.15 114.541 18.1649 6.80059
2403 222 3 C -0.13 114.24 17.6192 5.57155
2404 222 3 C -0.13 113.691 18.5933 4.83124
2405 222 4 C -0.17 113.139 21.0345 5.19997
2408 222 7 H 0.21 114.413 16.5989 5.26266
2409 222 7 H 0.21 113.339 18.5054 3.8139
2411 222 8 H 0.13 113.242 21.7437 6.02121
2412 222 8 H 0.13 113.699 21.394 4.33714
2237 213 7 H 0.21 129.684 21.9518 4.32663
2243 213 8 H 0.13 129.432 22.3166 7.25344
2446 224 7 H 0.21 141.891 22.2629 6.8773
952 52 11 Cl -1 3.7089 24.8948 1.54048
501 27 5 H 0.21 20.4696 28.2753 6.89083
512 27 10 H 0.06 18.6265 29.5218 7.09089
513 27 10 H 0.06 18.3674 27.8052 7.48275
229 13 1 N 0.15 28.152 24.8003 4.18826
230 13 2 C -0.11 28.5849 24.7717 5.42965
231 13 1 N 0.15 29.2414 23.6531 5.64679
232 13 3 C -0.13 29.231 22.92 4.48008
233 13 3 C -0.13 28.5521 23.6349 3.5711
234 13 4 C -0.17 27.3794 25.8766 3.56065
235 13 5 H 0.21 28.4251 25.55 6.16113
236 13 6 C -0.17 29.8756 23.2494 6.90529
238 13 7 H 0.21 28.3557 23.3509 2.54778
239 13 8 H 0.13 26.4212 25.4851 3.21897
240 13 8 H 0.13 27.2084 26.6723 4.28571
241 13 8 H 0.13 27.9332 26.2737 2.70996
500 27 4 C -0.17 23.261 27.8853 7.02806
505 27 8 H 0.13 23.7481 26.9583 7.33051
506 27 8 H 0.13 22.7696 27.7399 6.06604
507 27 8 H 0.13 24.0072 28.6749 6.93864
244 13 8 H 0.13 30.944 23.1052 6.74443
438 24 1 N 0.15 41.6819 25.4414 6.29893
439 24 2 C -0.11 42.9648 25.2067 6.13031
440 24 1 N 0.15 43.215 23.932 6.33452
441 24 3 C -0.13 42.027 23.3104 6.65252
442 24 3 C -0.13 41.0715 24.2511 6.63034
443 24 4 C -0.17 41.0087 26.7364 6.16134
444 24 5 H 0.21 43.7022 25.9494 5.86406
445 24 6 C -0.17 44.5242 23.2789 6.24222
447 24 7 H 0.21 40.0212 24.1038 6.8339
448 24 8 H 0.13 40.5366 27.0033 7.10685
449 24 8 H 0.13 41.7391 27.4994 5.89235
450 24 8 H 0.13 40.2491 26.6706 5.38238
452 24 8 H 0.13 44.7772 22.8333 7.2043
453 24 8 H 0.13 44.4897 22.5006 5.47983
451 24 9 C -0.05 45.579 24.3073 5.86793
454 24 10 H 0.06 46.5525 23.8218 5.79931
455 24 10 H 0.06 45.3273 24.7531 4.90562
456 24 10 H 0.06 45.6148 25.0858 6.63008
1952 152 11 Cl -1 53.7089 24.8948 1.54048
1500 127 4 C -0.17 73.261 27.8853 7.02806
1501 127 5 H 0.21 70.4696 28.2753 6.89083
1505 127 8 H 0.13 73.7481 26.9583 7.33051
1506 127 8 H 0.13 72.7696 27.7399 6.06604
1507 127 8 H 0.13 74.0072 28.6749 6.93864
1512 127 10 H 0.06 68.6265 29.5218 7.09089
1513 127 10 H 0.06 68.3674 27.8052 7.48275
1229 113 1 N 0.15 78.152 24.8003 4.18826
1230 113 2 C -0.11 78.5849 24.7717 5.42965
1231 113 1 N 0.15 79.2413 23.6531 5.64679
1232 113 3 C -0.13 79.231 22.92 4.48008
1233 113 3 C -0.13 78.5521 23.6349 3.5711
1234 113 4 C -0.17 77.3794 25.8766 3.56065
1235 113 5 H 0.21 78.4251 25.55 6.16113
1236 113 6 C -0.17 79.8756 23.2494 6.90529
1238 113 7 H 0.21 78.3557 23.3509 2.54778
1239 113 8 H 0.13 76.4212 25.4851 3.21897
1240 113 8 H 0.13 77.2084 26.6723 4.28571
1241 113 8 H 0.13 77.9332 26.2737 2.70996
1244 113 8 H 0.13 80.944 23.1052 6.74443
1438 124 1 N 0.15 91.6819 25.4414 6.29893
1439 124 2 C -0.11 92.9648 25.2067 6.13031
1440 124 1 N 0.15 93.215 23.932 6.33452
1441 124 3 C -0.13 92.027 23.3104 6.65252
1442 124 3 C -0.13 91.0715 24.2511 6.63034
1443 124 4 C -0.17 91.0087 26.7364 6.16134
1444 124 5 H 0.21 93.7022 25.9494 5.86406
1445 124 6 C -0.17 94.5242 23.2789 6.24222
1447 124 7 H 0.21 90.0212 24.1038 6.8339
1448 124 8 H 0.13 90.5366 27.0033 7.10685
1449 124 8 H 0.13 91.7391 27.4994 5.89235
1450 124 8 H 0.13 90.2491 26.6706 5.38238
1451 124 9 C -0.05 95.579 24.3073 5.86793
1452 124 8 H 0.13 94.7772 22.8333 7.2043
1453 124 8 H 0.13 94.4897 22.5006 5.47983
1454 124 10 H 0.06 96.5525 23.8218 5.79931
1455 124 10 H 0.06 95.3273 24.7531 4.90562
1456 124 10 H 0.06 95.6148 25.0858 6.63008
2952 252 11 Cl -1 103.709 24.8948 1.54048
2512 227 10 H 0.06 118.626 29.5218 7.09089
2513 227 10 H 0.06 118.367 27.8052 7.48275
2234 213 4 C -0.17 127.379 25.8766 3.56065
2239 213 8 H 0.13 126.421 25.4851 3.21897
2240 213 8 H 0.13 127.208 26.6723 4.28571
2500 227 4 C -0.17 123.261 27.8853 7.02806
2501 227 5 H 0.21 120.47 28.2753 6.89083
2505 227 8 H 0.13 123.748 26.9583 7.33051
2506 227 8 H 0.13 122.77 27.7399 6.06604
2507 227 8 H 0.13 124.007 28.6749 6.93864
2229 213 1 N 0.15 128.152 24.8003 4.18826
2230 213 2 C -0.11 128.585 24.7717 5.42965
2231 213 1 N 0.15 129.241 23.6531 5.64679
2232 213 3 C -0.13 129.231 22.92 4.48008
2233 213 3 C -0.13 128.552 23.6349 3.5711
2235 213 5 H 0.21 128.425 25.55 6.16113
2236 213 6 C -0.17 129.876 23.2494 6.90529
2238 213 7 H 0.21 128.356 23.3509 2.54778
2241 213 8 H 0.13 127.933 26.2737 2.70996
2244 213 8 H 0.13 130.944 23.1052 6.74443
2438 224 1 N 0.15 141.682 25.4414 6.29893
2441 224 3 C -0.13 142.027 23.3104 6.65252
2442 224 3 C -0.13 141.072 24.2511 6.63034
2443 224 4 C -0.17 141.009 26.7364 6.16134
2447 224 7 H 0.21 140.021 24.1038 6.8339
2448 224 8 H 0.13 140.537 27.0033 7.10685
2449 224 8 H 0.13 141.739 27.4994 5.89235
2450 224 8 H 0.13 140.249 26.6706 5.38238
2439 224 2 C -0.11 142.965 25.2067 6.13031
2440 224 1 N 0.15 143.215 23.932 6.33452
2444 224 5 H 0.21 143.702 25.9494 5.86406
2445 224 6 C -0.17 144.524 23.2789 6.24222
2451 224 9 C -0.05 145.579 24.3073 5.86793
2452 224 8 H 0.13 144.777 22.8333 7.2043
2453 224 8 H 0.13 144.49 22.5006 5.47983
2454 224 10 H 0.06 146.552 23.8218 5.79931
2455 224 10 H 0.06 145.327 24.7531 4.90562
2456 224 10 H 0.06 145.615 25.0858 6.63008
519 28 4 C -0.17 36.6396 36.7965 3.56183
524 28 8 H 0.13 37.2489 35.9723 3.93264
525 28 8 H 0.13 35.8129 36.9746 4.24952
526 28 8 H 0.13 36.2449 36.5421 2.57819
523 28 7 H 0.21 39.0265 37.3934 2.04367
1519 128 4 C -0.17 86.6396 36.7965 3.56183
1523 128 7 H 0.21 89.0265 37.3934 2.04367
1524 128 8 H 0.13 87.2489 35.9723 3.93264
1525 128 8 H 0.13 85.8129 36.9746 4.24952
1526 128 8 H 0.13 86.2449 36.5421 2.57819
2519 228 4 C -0.17 136.64 36.7965 3.56183
2523 228 7 H 0.21 139.026 37.3934 2.04367
2524 228 8 H 0.13 137.249 35.9723 3.93264
2525 228 8 H 0.13 135.813 36.9746 4.24952
2526 228 8 H 0.13 136.245 36.5421 2.57819
248 14 1 N 0.15 27.425 39.3091 3.30567
249 14 2 C -0.11 27.6528 39.142 4.58997
250 14 1 N 0.15 27.0358 40.0779 5.27729
251 14 3 C -0.13 26.3733 40.8939 4.38609
252 14 3 C -0.13 26.6158 40.4147 3.15735
253 14 4 C -0.17 27.9362 38.4732 2.21519
254 14 5 H 0.21 28.2562 38.3542 5.0163
255 14 6 C -0.17 27.0456 40.2334 6.73499
256 14 7 H 0.21 25.7718 41.7568 4.6311
257 14 7 H 0.21 26.2466 40.8191 2.22648
258 14 8 H 0.13 28.5406 39.082 1.54273
259 14 8 H 0.13 28.5486 37.6713 2.62773
260 14 8 H 0.13 27.1001 38.0439 1.66316
261 14 9 C -0.05 27.8904 39.1333 7.35682
262 14 8 H 0.13 27.4667 41.2047 6.99451
263 14 8 H 0.13 26.0262 40.1666 7.11494
265 14 10 H 0.06 27.4698 38.1615 7.09839
266 14 10 H 0.06 28.9103 39.1996 6.97797
514 28 1 N 0.15 37.4617 38.0061 3.46128
515 28 2 C -0.11 37.2582 39.1429 4.09032
520 28 5 H 0.21 36.4454 39.3371 4.77448
527 28 9 C -0.05 37.1772 41.6796 5.21746
530 28 10 H 0.06 37.2665 42.703 5.58178
531 28 10 H 0.06 36.2228 41.5589 4.70496
532 28 10 H 0.06 37.2268 40.9891 6.05942
516 28 1 N 0.15 38.1927 40.0075 3.76136
517 28 3 C -0.13 39.0462 39.3938 2.87051
518 28 3 C -0.13 38.5907 38.1465 2.68348
521 28 6 C -0.17 38.3128 41.384 4.25135
522 28 7 H 0.21 39.918 39.8343 2.40967
528 28 8 H 0.13 39.2667 41.5056 4.7646
529 28 8 H 0.13 38.2627 42.0753 3.41014
1248 114 1 N 0.15 77.425 39.3091 3.30567
1249 114 2 C -0.11 77.6528 39.142 4.58997
1250 114 1 N 0.15 77.0358 40.0779 5.27729
1251 114 3 C -0.13 76.3733 40.8939 4.38609
1252 114 3 C -0.13 76.6158 40.4147 3.15735
1253 114 4 C -0.17 77.9362 38.4732 2.21519
1254 114 5 H 0.21 78.2562 38.3542 5.0163
1255 114 6 C -0.17 77.0456 40.2334 6.73499
1256 114 7 H 0.21 75.7718 41.7568 4.6311
1257 114 7 H 0.21 76.2466 40.8191 2.22648
1258 114 8 H 0.13 78.5406 39.082 1.54273
1259 114 8 H 0.13 78.5486 37.6713 2.62773
1260 114 8 H 0.13 77.1001 38.0439 1.66316
1261 114 9 C -0.05 77.8904 39.1333 7.35682
1262 114 8 H 0.13 77.4667 41.2047 6.99451
1263 114 8 H 0.13 76.0262 40.1666 7.11494
1265 114 10 H 0.06 77.4698 38.1615 7.09839
1266 114 10 H 0.06 78.9103 39.1996 6.97797
1514 128 1 N 0.15 87.4617 38.0061 3.46128
1515 128 2 C -0.11 87.2582 39.1429 4.09032
1516 128 1 N 0.15 88.1927 40.0075 3.76136
1517 128 3 C -0.13 89.0462 39.3938 2.87051
1518 128 3 C -0.13 88.5907 38.1465 2.68348
1520 128 5 H 0.21 86.4454 39.3371 4.77448
1521 128 6 C -0.17 88.3128 41.384 4.25135
1522 128 7 H 0.21 89.918 39.8343 2.40967
1527 128 9 C -0.05 87.1772 41.6796 5.21746
1528 128 8 H 0.13 89.2667 41.5056 4.7646
1529 128 8 H 0.13 88.2627 42.0753 3.41014
1530 128 10 H 0.06 87.2665 42.703 5.58178
1531 128 10 H 0.06 86.2228 41.5589 4.70496
1532 128 10 H 0.06 87.2268 40.9891 6.05942
2248 214 1 N 0.15 127.425 39.3091 3.30567
2250 214 1 N 0.15 127.036 40.0779 5.27729
2251 214 3 C -0.13 126.373 40.8939 4.38609
2252 214 3 C -0.13 126.616 40.4147 3.15735
2255 214 6 C -0.17 127.046 40.2334 6.73499
2256 214 7 H 0.21 125.772 41.7568 4.6311
2257 214 7 H 0.21 126.247 40.8191 2.22648
2260 214 8 H 0.13 127.1 38.0439 1.66316
2262 214 8 H 0.13 127.467 41.2047 6.99451
2263 214 8 H 0.13 126.026 40.1666 7.11494
2265 214 10 H 0.06 127.47 38.1615 7.09839
2249 214 2 C -0.11 127.653 39.142 4.58997
2253 214 4 C -0.17 127.936 38.4732 2.21519
2254 214 5 H 0.21 128.256 38.3542 5.0163
2258 214 8 H 0.13 128.541 39.082 1.54273
2259 214 8 H 0.13 128.549 37.6713 2.62773
2261 214 9 C -0.05 127.89 39.1333 7.35682
2266 214 10 H 0.06 128.91 39.1996 6.97797
2514 228 1 N 0.15 137.462 38.0061 3.46128
2515 228 2 C -0.11 137.258 39.1429 4.09032
2516 228 1 N 0.15 138.193 40.0075 3.76136
2517 228 3 C -0.13 139.046 39.3938 2.87051
2518 228 3 C -0.13 138.591 38.1465 2.68348
2520 228 5 H 0.21 136.445 39.3371 4.77448
2521 228 6 C -0.17 138.313 41.384 4.25135
2522 228 7 H 0.21 139.918 39.8343 2.40967
2527 228 9 C -0.05 137.177 41.6796 5.21746
2528 228 8 H 0.13 139.267 41.5056 4.7646
2529 228 8 H 0.13 138.263 42.0753 3.41014
2530 228 10 H 0.06 137.267 42.703 5.58178
2531 228 10 H 0.06 136.223 41.5589 4.70496
2532 228 10 H 0.06 137.227 40.9891 6.05942
975 75 11 Cl -1 35.3367 46.48 6.34345
1975 175 11 Cl -1 85.3367 46.48 6.34345
2975 275 11 Cl -1 135.337 46.48 6.34345
3837 345 1 N 0.15 17.9865 57.5596 6.43769
3838 345 2 C -0.11 19.1208 57.4071 5.79022
3839 345 1 N 0.15 19.0254 57.9415 4.59248
3840 345 3 C -0.13 17.7586 58.4678 4.4607
3841 345 3 C -0.13 17.1112 58.2298 5.61068
3843 345 5 H 0.21 19.9991 56.9166 6.18319
3844 345 6 C -0.17 20.0764 57.9757 3.57112
3845 345 7 H 0.21 17.362 58.9762 3.59435
3846 345 7 H 0.21 16.0949 58.5104 5.84482
3850 345 9 C -0.05 21.3239 57.2897 4.10365
3851 345 8 H 0.13 19.7314 57.4576 2.67639
3852 345 8 H 0.13 20.3096 59.0113 3.32348
3853 345 10 H 0.06 22.1054 57.3152 3.34425
3854 345 10 H 0.06 21.6702 57.8075 4.99811
3855 345 10 H 0.06 21.092 56.2538 4.35102
4841 445 3 C -0.13 67.1112 58.2298 5.61068
4845 445 7 H 0.21 67.362 58.9762 3.59435
4846 445 7 H 0.21 66.0949 58.5104 5.84482
4837 445 1 N 0.15 67.9865 57.5596 6.43769
4838 445 2 C -0.11 69.1208 57.4071 5.79022
4839 445 1 N 0.15 69.0254 57.9415 4.59248
4840 445 3 C -0.13 67.7586 58.4678 4.4607
4843 445 5 H 0.21 69.9991 56.9166 6.18319
4844 445 6 C -0.17 70.0764 57.9757 3.57112
4850 445 9 C -0.05 71.3239 57.2897 4.10365
4851 445 8 H 0.13 69.7314 57.4576 2.67639
4852 445 8 H 0.13 70.3096 59.0113 3.32348
4853 445 10 H 0.06 72.1054 57.3152 3.34425
4854 445 10 H 0.06 71.6702 57.8075 4.99811
4855 445 10 H 0.06 71.092 56.2538 4.35102
5837 545 1 N 0.15 117.986 57.5596 6.43769
5838 545 2 C -0.11 119.121 57.4071 5.79022
5839 545 1 N 0.15 119.025 57.9415 4.59248
5840 545 3 C -0.13 117.759 58.4678 4.4607
5841 545 3 C -0.13 117.111 58.2298 5.61068
5843 545 5 H 0.21 119.999 56.9166 6.18319
5845 545 7 H 0.21 117.362 58.9762 3.59435
5846 545 7 H 0.21 116.095 58.5104 5.84482
5851 545 8 H 0.13 119.731 57.4576 2.67639
5844 545 6 C -0.17 120.076 57.9757 3.57112
5850 545 9 C -0.05 121.324 57.2897 4.10365
5852 545 8 H 0.13 120.31 59.0113 3.32348
5853 545 10 H 0.06 122.105 57.3152 3.34425
5854 545 10 H 0.06 121.67 57.8075 4.99811
5855 545 10 H 0.06 121.092 56.2538 4.35102
3408 322 7 H 0.21 14.4133 66.5989 5.26266
4408 422 7 H 0.21 64.4133 66.5989 5.26266
5408 522 7 H 0.21 114.413 66.5989 5.26266
3952 352 11 Cl -1 3.7089 74.8948 1.54048
3400 322 1 N 0.15 13.6599 69.728 5.61272
3401 322 2 C -0.11 14.1778 69.4288 6.78383
3402 322 1 N 0.15 14.5406 68.1649 6.80059
3403 322 3 C -0.13 14.2398 67.6192 5.57155
3404 322 3 C -0.13 13.6909 68.5933 4.83124
3405 322 4 C -0.17 13.1385 71.0345 5.19997
3409 322 7 H 0.21 13.3392 68.5054 3.8139
3410 322 8 H 0.13 12.0858 70.9387 4.93425
3411 322 8 H 0.13 13.2424 71.7437 6.02121
3412 322 8 H 0.13 13.6993 71.394 4.33714
3229 313 1 N 0.15 28.152 74.8003 4.18826
3230 313 2 C -0.11 28.5849 74.7717 5.42965
3231 313 1 N 0.15 29.2414 73.6531 5.64679
3232 313 3 C -0.13 29.231 72.92 4.48008
3233 313 3 C -0.13 28.5521 73.6349 3.5711
3236 313 6 C -0.17 29.8756 73.2494 6.90529
3237 313 7 H 0.21 29.6843 71.9518 4.32663
3238 313 7 H 0.21 28.3557 73.3509 2.54778
3243 313 8 H 0.13 29.432 72.3166 7.25344
3244 313 8 H 0.13 30.944 73.1052 6.74443
3440 324 1 N 0.15 43.215 73.932 6.33452
3441 324 3 C -0.13 42.027 73.3104 6.65252
3442 324 3 C -0.13 41.0715 74.2511 6.63034
3445 324 6 C -0.17 44.5242 73.2789 6.24222
3446 324 7 H 0.21 41.8909 72.2629 6.8773
3447 324 7 H 0.21 40.0212 74.1038 6.8339
3452 324 8 H 0.13 44.7772 72.8333 7.2043
3453 324 8 H 0.13 44.4897 72.5006 5.47983
3451 324 9 C -0.05 45.579 74.3073 5.86793
3454 324 10 H 0.06 46.5525 73.8218 5.79931
3455 324 10 H 0.06 45.3273 74.7531 4.90562
4952 452 11 Cl -1 53.7089 74.8948 1.54048
4400 422 1 N 0.15 63.6599 69.728 5.61272
4401 422 2 C -0.11 64.1778 69.4288 6.78383
4402 422 1 N 0.15 64.5406 68.1649 6.80059
4403 422 3 C -0.13 64.2398 67.6192 5.57155
4404 422 3 C -0.13 63.6909 68.5933 4.83124
4405 422 4 C -0.17 63.1385 71.0345 5.19997
4409 422 7 H 0.21 63.3392 68.5054 3.8139
4410 422 8 H 0.13 62.0858 70.9387 4.93425
4411 422 8 H 0.13 63.2424 71.7437 6.02121
4412 422 8 H 0.13 63.6993 71.394 4.33714
4229 413 1 N 0.15 78.152 74.8003 4.18826
4230 413 2 C -0.11 78.5849 74.7717 5.42965
4231 413 1 N 0.15 79.2413 73.6531 5.64679
4232 413 3 C -0.13 79.231 72.92 4.48008
4233 413 3 C -0.13 78.5521 73.6349 3.5711
4236 413 6 C -0.17 79.8756 73.2494 6.90529
4237 413 7 H 0.21 79.6843 71.9518 4.32663
4238 413 7 H 0.21 78.3557 73.3509 2.54778
4243 413 8 H 0.13 79.432 72.3166 7.25344
4244 413 8 H 0.13 80.944 73.1052 6.74443
4440 424 1 N 0.15 93.215 73.932 6.33452
4441 424 3 C -0.13 92.027 73.3104 6.65252
4442 424 3 C -0.13 91.0715 74.2511 6.63034
4445 424 6 C -0.17 94.5242 73.2789 6.24222
4446 424 7 H 0.21 91.8909 72.2629 6.8773
4447 424 7 H 0.21 90.0212 74.1038 6.8339
4451 424 9 C -0.05 95.579 74.3073 5.86793
4452 424 8 H 0.13 94.7772 72.8333 7.2043
4453 424 8 H 0.13 94.4897 72.5006 5.47983
4454 424 10 H 0.06 96.5525 73.8218 5.79931
4455 424 10 H 0.06 95.3273 74.7531 4.90562
5952 552 11 Cl -1 103.709 74.8948 1.54048
5410 522 8 H 0.13 112.086 70.9387 4.93425
5400 522 1 N 0.15 113.66 69.728 5.61272
5401 522 2 C -0.11 114.178 69.4288 6.78383
5402 522 1 N 0.15 114.541 68.1649 6.80059
5403 522 3 C -0.13 114.24 67.6192 5.57155
5404 522 3 C -0.13 113.691 68.5933 4.83124
5405 522 4 C -0.17 113.139 71.0345 5.19997
5409 522 7 H 0.21 113.339 68.5054 3.8139
5411 522 8 H 0.13 113.242 71.7437 6.02121
5412 522 8 H 0.13 113.699 71.394 4.33714
5229 513 1 N 0.15 128.152 74.8003 4.18826
5230 513 2 C -0.11 128.585 74.7717 5.42965
5231 513 1 N 0.15 129.241 73.6531 5.64679
5232 513 3 C -0.13 129.231 72.92 4.48008
5233 513 3 C -0.13 128.552 73.6349 3.5711
5236 513 6 C -0.17 129.876 73.2494 6.90529
5237 513 7 H 0.21 129.684 71.9518 4.32663
5238 513 7 H 0.21 128.356 73.3509 2.54778
5243 513 8 H 0.13 129.432 72.3166 7.25344
5244 513 8 H 0.13 130.944 73.1052 6.74443
5441 524 3 C -0.13 142.027 73.3104 6.65252
5442 524 3 C -0.13 141.072 74.2511 6.63034
5446 524 7 H 0.21 141.891 72.2629 6.8773
5447 524 7 H 0.21 140.021 74.1038 6.8339
5440 524 1 N 0.15 143.215 73.932 6.33452
5445 524 6 C -0.17 144.524 73.2789 6.24222
5451 524 9 C -0.05 145.579 74.3073 5.86793
5452 524 8 H 0.13 144.777 72.8333 7.2043
5453 524 8 H 0.13 144.49 72.5006 5.47983
5454 524 10 H 0.06 146.552 73.8218 5.79931
5455 524 10 H 0.06 145.327 74.7531 4.90562
3501 327 5 H 0.21 20.4696 78.2753 6.89083
3512 327 10 H 0.06 18.6265 79.5218 7.09089
3513 327 10 H 0.06 18.3674 77.8052 7.48275
3234 313 4 C -0.17 27.3794 75.8766 3.56065
3235 313 5 H 0.21 28.4251 75.55 6.16113
3239 313 8 H 0.13 26.4212 75.4851 3.21897
3240 313 8 H 0.13 27.2084 76.6723 4.28571
3241 313 8 H 0.13 27.9332 76.2737 2.70996
3500 327 4 C -0.17 23.261 77.8853 7.02806
3505 327 8 H 0.13 23.7481 76.9583 7.33051
3506 327 8 H 0.13 22.7696 77.7399 6.06604
3507 327 8 H 0.13 24.0072 78.6749 6.93864
3438 324 1 N 0.15 41.6819 75.4414 6.29893
3439 324 2 C -0.11 42.9648 75.2067 6.13031
3443 324 4 C -0.17 41.0087 76.7364 6.16134
3444 324 5 H 0.21 43.7022 75.9494 5.86406
3448 324 8 H 0.13 40.5366 77.0033 7.10685
3449 324 8 H 0.13 41.7391 77.4994 5.89235
3450 324 8 H 0.13 40.2491 76.6706 5.38238
3456 324 10 H 0.06 45.6148 75.0858 6.63008
4500 427 4 C -0.17 73.261 77.8853 7.02806
4501 427 5 H 0.21 70.4696 78.2753 6.89083
4505 427 8 H 0.13 73.7481 76.9583 7.33051
4506 427 8 H 0.13 72.7696 77.7399 6.06604
4507 427 8 H 0.13 74.0072 78.6749 6.93864
4512 427 10 H 0.06 68.6265 79.5218 7.09089
4513 427 10 H 0.06 68.3674 77.8052 7.48275
4234 413 4 C -0.17 77.3794 75.8766 3.56065
4235 413 5 H 0.21 78.4251 75.55 6.16113
4239 413 8 H 0.13 76.4212 75.4851 3.21897
4240 413 8 H 0.13 77.2084 76.6723 4.28571
4241 413 8 H 0.13 77.9332 76.2737 2.70996
4438 424 1 N 0.15 91.6819 75.4414 6.29893
4439 424 2 C -0.11 92.9648 75.2067 6.13031
4443 424 4 C -0.17 91.0087 76.7364 6.16134
4444 424 5 H 0.21 93.7022 75.9494 5.86406
4448 424 8 H 0.13 90.5366 77.0033 7.10685
4449 424 8 H 0.13 91.7391 77.4994 5.89235
4450 424 8 H 0.13 90.2491 76.6706 5.38238
4456 424 10 H 0.06 95.6148 75.0858 6.63008
5512 527 10 H 0.06 118.626 79.5218 7.09089
5513 527 10 H 0.06 118.367 77.8052 7.48275
5234 513 4 C -0.17 127.379 75.8766 3.56065
5239 513 8 H 0.13 126.421 75.4851 3.21897
5240 513 8 H 0.13 127.208 76.6723 4.28571
5500 527 4 C -0.17 123.261 77.8853 7.02806
5501 527 5 H 0.21 120.47 78.2753 6.89083
5505 527 8 H 0.13 123.748 76.9583 7.33051
5506 527 8 H 0.13 122.77 77.7399 6.06604
5507 527 8 H 0.13 124.007 78.6749 6.93864
5235 513 5 H 0.21 128.425 75.55 6.16113
5241 513 8 H 0.13 127.933 76.2737 2.70996
5438 524 1 N 0.15 141.682 75.4414 6.29893
5443 524 4 C -0.17 141.009 76.7364 6.16134
5448 524 8 H 0.13 140.537 77.0033 7.10685
5449 524 8 H 0.13 141.739 77.4994 5.89235
5450 524 8 H 0.13 140.249 76.6706 5.38238
5439 524 2 C -0.11 142.965 75.2067 6.13031
5444 524 5 H 0.21 143.702 75.9494 5.86406
5456 524 10 H 0.06 145.615 75.0858 6.63008
3248 314 1 N 0.15 27.425 89.3091 3.30567
3249 314 2 C -0.11 27.6528 89.142 4.58997
3253 314 4 C -0.17 27.9362 88.4732 2.21519
3254 314 5 H 0.21 28.2562 88.3542 5.0163
3258 314 8 H 0.13 28.5406 89.082 1.54273
3259 314 8 H 0.13 28.5486 87.6713 2.62773
3260 314 8 H 0.13 27.1001 88.0439 1.66316
3261 314 9 C -0.05 27.8904 89.1333 7.35682
3265 314 10 H 0.06 27.4698 88.1615 7.09839
3266 314 10 H 0.06 28.9103 89.1996 6.97797
3514 328 1 N 0.15 37.4617 88.0061 3.46128
3515 328 2 C -0.11 37.2582 89.1429 4.09032
3519 328 4 C -0.17 36.6396 86.7965 3.56183
3520 328 5 H 0.21 36.4454 89.3371 4.77448
3524 328 8 H 0.13 37.2489 85.9723 3.93264
3525 328 8 H 0.13 35.8129 86.9746 4.24952
3526 328 8 H 0.13 36.2449 86.5421 2.57819
3517 328 3 C -0.13 39.0462 89.3938 2.87051
3518 328 3 C -0.13 38.5907 88.1465 2.68348
3522 328 7 H 0.21 39.918 89.8343 2.40967
3523 328 7 H 0.21 39.0265 87.3934 2.04367
4248 414 1 N 0.15 77.425 89.3091 3.30567
4249 414 2 C -0.11 77.6528 89.142 4.58997
4253 414 4 C -0.17 77.9362 88.4732 2.21519
4254 414 5 H 0.21 78.2562 88.3542 5.0163
4258 414 8 H 0.13 78.5406 89.082 1.54273
4259 414 8 H 0.13 78.5486 87.6713 2.62773
4260 414 8 H 0.13 77.1001 88.0439 1.66316
4261 414 9 C -0.05 77.8904 89.1333 7.35682
4265 414 10 H 0.06 77.4698 88.1615 7.09839
4266 414 10 H 0.06 78.9103 89.1996 6.97797
4514 428 1 N 0.15 87.4617 88.0061 3.46128
4515 428 2 C -0.11 87.2582 89.1429 4.09032
4517 428 3 C -0.13 89.0462 89.3938 2.87051
4518 428 3 C -0.13 88.5907 88.1465 2.68348
4519 428 4 C -0.17 86.6396 86.7965 3.56183
4520 428 5 H 0.21 86.4454 89.3371 4.77448
4522 428 7 H 0.21 89.918 89.8343 2.40967
4523 428 7 H 0.21 89.0265 87.3934 2.04367
4524 428 8 H 0.13 87.2489 85.9723 3.93264
4525 428 8 H 0.13 85.8129 86.9746 4.24952
4526 428 8 H 0.13 86.2449 86.5421 2.57819
5248 514 1 N 0.15 127.425 89.3091 3.30567
5260 514 8 H 0.13 127.1 88.0439 1.66316
5265 514 10 H 0.06 127.47 88.1615 7.09839
5249 514 2 C -0.11 127.653 89.142 4.58997
5253 514 4 C -0.17 127.936 88.4732 2.21519
5254 514 5 H 0.21 128.256 88.3542 5.0163
5258 514 8 H 0.13 128.541 89.082 1.54273
5259 514 8 H 0.13 128.549 87.6713 2.62773
5261 514 9 C -0.05 127.89 89.1333 7.35682
5266 514 10 H 0.06 128.91 89.1996 6.97797
5514 528 1 N 0.15 137.462 88.0061 3.46128
5515 528 2 C -0.11 137.258 89.1429 4.09032
5517 528 3 C -0.13 139.046 89.3938 2.87051
5518 528 3 C -0.13 138.591 88.1465 2.68348
5519 528 4 C -0.17 136.64 86.7965 3.56183
5520 528 5 H 0.21 136.445 89.3371 4.77448
5522 528 7 H 0.21 139.918 89.8343 2.40967
5523 528 7 H 0.21 139.026 87.3934 2.04367
5524 528 8 H 0.13 137.249 85.9723 3.93264
5525 528 8 H 0.13 135.813 86.9746 4.24952
5526 528 8 H 0.13 136.245 86.5421 2.57819
3250 314 1 N 0.15 27.0358 90.0779 5.27729
3251 314 3 C -0.13 26.3733 90.8939 4.38609
3252 314 3 C -0.13 26.6158 90.4147 3.15735
3255 314 6 C -0.17 27.0456 90.2334 6.73499
3256 314 7 H 0.21 25.7718 91.7568 4.6311
3257 314 7 H 0.21 26.2466 90.8191 2.22648
3262 314 8 H 0.13 27.4667 91.2047 6.99451
3263 314 8 H 0.13 26.0262 90.1666 7.11494
3527 328 9 C -0.05 37.1772 91.6796 5.21746
3530 328 10 H 0.06 37.2665 92.703 5.58178
3531 328 10 H 0.06 36.2228 91.5589 4.70496
3532 328 10 H 0.06 37.2268 90.9891 6.05942
3975 375 11 Cl -1 35.3367 96.48 6.34345
3516 328 1 N 0.15 38.1927 90.0075 3.76136
3521 328 6 C -0.17 38.3128 91.384 4.25135
3528 328 8 H 0.13 39.2667 91.5056 4.7646
3529 328 8 H 0.13 38.2627 92.0753 3.41014
4250 414 1 N 0.15 77.0358 90.0779 5.27729
4251 414 3 C -0.13 76.3733 90.8939 4.38609
4252 414 3 C -0.13 76.6158 90.4147 3.15735
4255 414 6 C -0.17 77.0456 90.2334 6.73499
4256 414 7 H 0.21 75.7718 91.7568 4.6311
4257 414 7 H 0.21 76.2466 90.8191 2.22648
4262 414 8 H 0.13 77.4667 91.2047 6.99451
4263 414 8 H 0.13 76.0262 90.1666 7.11494
4516 428 1 N 0.15 88.1927 90.0075 3.76136
4521 428 6 C -0.17 88.3128 91.384 4.25135
4527 428 9 C -0.05 87.1772 91.6796 5.21746
4528 428 8 H 0.13 89.2667 91.5056 4.7646
4529 428 8 H 0.13 88.2627 92.0753 3.41014
4530 428 10 H 0.06 87.2665 92.703 5.58178
4531 428 10 H 0.06 86.2228 91.5589 4.70496
4532 428 10 H 0.06 87.2268 90.9891 6.05942
4975 475 11 Cl -1 85.3367 96.48 6.34345
5250 514 1 N 0.15 127.036 90.0779 5.27729
5251 514 3 C -0.13 126.373 90.8939 4.38609
5252 514 3 C -0.13 126.616 90.4147 3.15735
5255 514 6 C -0.17 127.046 90.2334 6.73499
5256 514 7 H 0.21 125.772 91.7568 4.6311
5257 514 7 H 0.21 126.247 90.8191 2.22648
5262 514 8 H 0.13 127.467 91.2047 6.99451
5263 514 8 H 0.13 126.026 90.1666 7.11494
5516 528 1 N 0.15 138.193 90.0075 3.76136
5521 528 6 C -0.17 138.313 91.384 4.25135
5527 528 9 C -0.05 137.177 91.6796 5.21746
5528 528 8 H 0.13 139.267 91.5056 4.7646
5529 528 8 H 0.13 138.263 92.0753 3.41014
5530 528 10 H 0.06 137.267 92.703 5.58178
5531 528 10 H 0.06 136.223 91.5589 4.70496
5532 528 10 H 0.06 137.227 90.9891 6.05942
5975 575 11 Cl -1 135.337 96.48 6.34345
6837 645 1 N 0.15 17.9865 107.56 6.43769
6838 645 2 C -0.11 19.1208 107.407 5.79022
6839 645 1 N 0.15 19.0254 107.941 4.59248
6840 645 3 C -0.13 17.7586 108.468 4.4607
6841 645 3 C -0.13 17.1112 108.23 5.61068
6843 645 5 H 0.21 19.9991 106.917 6.18319
6844 645 6 C -0.17 20.0764 107.976 3.57112
6845 645 7 H 0.21 17.362 108.976 3.59435
6846 645 7 H 0.21 16.0949 108.51 5.84482
6850 645 9 C -0.05 21.3239 107.29 4.10365
6851 645 8 H 0.13 19.7314 107.458 2.67639
6852 645 8 H 0.13 20.3096 109.011 3.32348
6853 645 10 H 0.06 22.1054 107.315 3.34425
6854 645 10 H 0.06 21.6702 107.808 4.99811
6855 645 10 H 0.06 21.092 106.254 4.35102
7841 745 3 C -0.13 67.1112 108.23 5.61068
7845 745 7 H 0.21 67.362 108.976 3.59435
7846 745 7 H 0.21 66.0949 108.51 5.84482
7837 745 1 N 0.15 67.9865 107.56 6.43769
7838 745 2 C -0.11 69.1208 107.407 5.79022
7839 745 1 N 0.15 69.0254 107.941 4.59248
7840 745 3 C -0.13 67.7586 108.468 4.4607
7843 745 5 H 0.21 69.9991 106.917 6.18319
7844 745 6 C -0.17 70.0764 107.976 3.57112
7850 745 9 C -0.05 71.3239 107.29 4.10365
7851 745 8 H 0.13 69.7314 107.458 2.67639
7852 745 8 H 0.13 70.3096 109.011 3.32348
7853 745 10 H 0.06 72.1054 107.315 3.34425
7854 745 10 H 0.06 71.6702 107.808 4.99811
7855 745 10 H 0.06 71.092 106.254 4.35102
8837 845 1 N 0.15 117.986 107.56 6.43769
8838 845 2 C -0.11 119.121 107.407 5.79022
8839 845 1 N 0.15 119.025 107.941 4.59248
8840 845 3 C -0.13 117.759 108.468 4.4607
8841 845 3 C -0.13 117.111 108.23 5.61068
8843 845 5 H 0.21 119.999 106.917 6.18319
8845 845 7 H 0.21 117.362 108.976 3.59435
8846 845 7 H 0.21 116.095 108.51 5.84482
8851 845 8 H 0.13 119.731 107.458 2.67639
8844 845 6 C -0.17 120.076 107.976 3.57112
8850 845 9 C -0.05 121.324 107.29 4.10365
8852 845 8 H 0.13 120.31 109.011 3.32348
8853 845 10 H 0.06 122.105 107.315 3.34425
8854 845 10 H 0.06 121.67 107.808 4.99811
8855 845 10 H 0.06 121.092 106.254 4.35102
6400 622 1 N 0.15 13.6599 119.728 5.61272
6401 622 2 C -0.11 14.1778 119.429 6.78383
6402 622 1 N 0.15 14.5406 118.165 6.80059
6403 622 3 C -0.13 14.2398 117.619 5.57155
6404 622 3 C -0.13 13.6909 118.593 4.83124
6408 622 7 H 0.21 14.4133 116.599 5.26266
6409 622 7 H 0.21 13.3392 118.505 3.8139
7400 722 1 N 0.15 63.6599 119.728 5.61272
7401 722 2 C -0.11 64.1778 119.429 6.78383
7402 722 1 N 0.15 64.5406 118.165 6.80059
7403 722 3 C -0.13 64.2398 117.619 5.57155
7404 722 3 C -0.13 63.6909 118.593 4.83124
7408 722 7 H 0.21 64.4133 116.599 5.26266
7409 722 7 H 0.21 63.3392 118.505 3.8139
8400 822 1 N 0.15 113.66 119.728 5.61272
8401 822 2 C -0.11 114.178 119.429 6.78383
8402 822 1 N 0.15 114.541 118.165 6.80059
8403 822 3 C -0.13 114.24 117.619 5.57155
8404 822 3 C -0.13 113.691 118.593 4.83124
8408 822 7 H 0.21 114.413 116.599 5.26266
8409 822 7 H 0.21 113.339 118.505 3.8139
6952 652 11 Cl -1 3.7089 124.895 1.54048
6405 622 4 C -0.17 13.1385 121.035 5.19997
6410 622 8 H 0.13 12.0858 120.939 4.93425
6411 622 8 H 0.13 13.2424 121.744 6.02121
6412 622 8 H 0.13 13.6993 121.394 4.33714
6229 613 1 N 0.15 28.152 124.8 4.18826
6230 613 2 C -0.11 28.5849 124.772 5.42965
6231 613 1 N 0.15 29.2414 123.653 5.64679
6232 613 3 C -0.13 29.231 122.92 4.48008